<?xml version="1.0"?>
<VTKFile type="UnstructuredGrid"  version="0.1"  >
<UnstructuredGrid>
<Piece  NumberOfPoints="7225" NumberOfCells="36864">
<Points>
<DataArray  type="Float64"  NumberOfComponents="3"  format="ascii">0 0 0  0.04166666666666666 0 0  0.08333333333333333 0 0  0.125 0 0  0.1666666666666667 0 0  0.2083333333333333 0 0  0.25 0 0  0.2916666666666667 0 0  0.3333333333333333 0 0  0.375 0 0  0.4166666666666667 0 0  0.4583333333333333 0 0  0.5 0 0  0.5416666666666666 0 0  0.5833333333333334 0 0  0.625 0 0  0.6666666666666666 0 0  0.7083333333333334 0 0  0.75 0 0  0.7916666666666666 0 0  0.8333333333333334 0 0  0.875 0 0  0.9166666666666666 0 0  0.9583333333333334 0 0  1 0 0  0 0.0625 0  0.04166666666666666 0.0625 0  0.08333333333333333 0.0625 0  0.125 0.0625 0  0.1666666666666667 0.0625 0  0.2083333333333333 0.0625 0  0.25 0.0625 0  0.2916666666666667 0.0625 0  0.3333333333333333 0.0625 0  0.375 0.0625 0  0.4166666666666667 0.0625 0  0.4583333333333333 0.0625 0  0.5 0.0625 0  0.5416666666666666 0.0625 0  0.5833333333333334 0.0625 0  0.625 0.0625 0  0.6666666666666666 0.0625 0  0.7083333333333334 0.0625 0  0.75 0.0625 0  0.7916666666666666 0.0625 0  0.8333333333333334 0.0625 0  0.875 0.0625 0  0.9166666666666666 0.0625 0  0.9583333333333334 0.0625 0  1 0.0625 0  0 0.125 0  0.04166666666666666 0.125 0  0.08333333333333333 0.125 0  0.125 0.125 0  0.1666666666666667 0.125 0  0.2083333333333333 0.125 0  0.25 0.125 0  0.2916666666666667 0.125 0  0.3333333333333333 0.125 0  0.375 0.125 0  0.4166666666666667 0.125 0  0.4583333333333333 0.125 0  0.5 0.125 0  0.5416666666666666 0.125 0  0.5833333333333334 0.125 0  0.625 0.125 0  0.6666666666666666 0.125 0  0.7083333333333334 0.125 0  0.75 0.125 0  0.7916666666666666 0.125 0  0.8333333333333334 0.125 0  0.875 0.125 0  0.9166666666666666 0.125 0  0.9583333333333334 0.125 0  1 0.125 0  0 0.1875 0  0.04166666666666666 0.1875 0  0.08333333333333333 0.1875 0  0.125 0.1875 0  0.1666666666666667 0.1875 0  0.2083333333333333 0.1875 0  0.25 0.1875 0  0.2916666666666667 0.1875 0  0.3333333333333333 0.1875 0  0.375 0.1875 0  0.4166666666666667 0.1875 0  0.4583333333333333 0.1875 0  0.5 0.1875 0  0.5416666666666666 0.1875 0  0.5833333333333334 0.1875 0  0.625 0.1875 0  0.6666666666666666 0.1875 0  0.7083333333333334 0.1875 0  0.75 0.1875 0  0.7916666666666666 0.1875 0  0.8333333333333334 0.1875 0  0.875 0.1875 0  0.9166666666666666 0.1875 0  0.9583333333333334 0.1875 0  1 0.1875 0  0 0.25 0  0.04166666666666666 0.25 0  0.08333333333333333 0.25 0  0.125 0.25 0  0.1666666666666667 0.25 0  0.2083333333333333 0.25 0  0.25 0.25 0  0.2916666666666667 0.25 0  0.3333333333333333 0.25 0  0.375 0.25 0  0.4166666666666667 0.25 0  0.4583333333333333 0.25 0  0.5 0.25 0  0.5416666666666666 0.25 0  0.5833333333333334 0.25 0  0.625 0.25 0  0.6666666666666666 0.25 0  0.7083333333333334 0.25 0  0.75 0.25 0  0.7916666666666666 0.25 0  0.8333333333333334 0.25 0  0.875 0.25 0  0.9166666666666666 0.25 0  0.9583333333333334 0.25 0  1 0.25 0  0 0.3125 0  0.04166666666666666 0.3125 0  0.08333333333333333 0.3125 0  0.125 0.3125 0  0.1666666666666667 0.3125 0  0.2083333333333333 0.3125 0  0.25 0.3125 0  0.2916666666666667 0.3125 0  0.3333333333333333 0.3125 0  0.375 0.3125 0  0.4166666666666667 0.3125 0  0.4583333333333333 0.3125 0  0.5 0.3125 0  0.5416666666666666 0.3125 0  0.5833333333333334 0.3125 0  0.625 0.3125 0  0.6666666666666666 0.3125 0  0.7083333333333334 0.3125 0  0.75 0.3125 0  0.7916666666666666 0.3125 0  0.8333333333333334 0.3125 0  0.875 0.3125 0  0.9166666666666666 0.3125 0  0.9583333333333334 0.3125 0  1 0.3125 0  0 0.375 0  0.04166666666666666 0.375 0  0.08333333333333333 0.375 0  0.125 0.375 0  0.1666666666666667 0.375 0  0.2083333333333333 0.375 0  0.25 0.375 0  0.2916666666666667 0.375 0  0.3333333333333333 0.375 0  0.375 0.375 0  0.4166666666666667 0.375 0  0.4583333333333333 0.375 0  0.5 0.375 0  0.5416666666666666 0.375 0  0.5833333333333334 0.375 0  0.625 0.375 0  0.6666666666666666 0.375 0  0.7083333333333334 0.375 0  0.75 0.375 0  0.7916666666666666 0.375 0  0.8333333333333334 0.375 0  0.875 0.375 0  0.9166666666666666 0.375 0  0.9583333333333334 0.375 0  1 0.375 0  0 0.4375 0  0.04166666666666666 0.4375 0  0.08333333333333333 0.4375 0  0.125 0.4375 0  0.1666666666666667 0.4375 0  0.2083333333333333 0.4375 0  0.25 0.4375 0  0.2916666666666667 0.4375 0  0.3333333333333333 0.4375 0  0.375 0.4375 0  0.4166666666666667 0.4375 0  0.4583333333333333 0.4375 0  0.5 0.4375 0  0.5416666666666666 0.4375 0  0.5833333333333334 0.4375 0  0.625 0.4375 0  0.6666666666666666 0.4375 0  0.7083333333333334 0.4375 0  0.75 0.4375 0  0.7916666666666666 0.4375 0  0.8333333333333334 0.4375 0  0.875 0.4375 0  0.9166666666666666 0.4375 0  0.9583333333333334 0.4375 0  1 0.4375 0  0 0.5 0  0.04166666666666666 0.5 0  0.08333333333333333 0.5 0  0.125 0.5 0  0.1666666666666667 0.5 0  0.2083333333333333 0.5 0  0.25 0.5 0  0.2916666666666667 0.5 0  0.3333333333333333 0.5 0  0.375 0.5 0  0.4166666666666667 0.5 0  0.4583333333333333 0.5 0  0.5 0.5 0  0.5416666666666666 0.5 0  0.5833333333333334 0.5 0  0.625 0.5 0  0.6666666666666666 0.5 0  0.7083333333333334 0.5 0  0.75 0.5 0  0.7916666666666666 0.5 0  0.8333333333333334 0.5 0  0.875 0.5 0  0.9166666666666666 0.5 0  0.9583333333333334 0.5 0  1 0.5 0  0 0.5625 0  0.04166666666666666 0.5625 0  0.08333333333333333 0.5625 0  0.125 0.5625 0  0.1666666666666667 0.5625 0  0.2083333333333333 0.5625 0  0.25 0.5625 0  0.2916666666666667 0.5625 0  0.3333333333333333 0.5625 0  0.375 0.5625 0  0.4166666666666667 0.5625 0  0.4583333333333333 0.5625 0  0.5 0.5625 0  0.5416666666666666 0.5625 0  0.5833333333333334 0.5625 0  0.625 0.5625 0  0.6666666666666666 0.5625 0  0.7083333333333334 0.5625 0  0.75 0.5625 0  0.7916666666666666 0.5625 0  0.8333333333333334 0.5625 0  0.875 0.5625 0  0.9166666666666666 0.5625 0  0.9583333333333334 0.5625 0  1 0.5625 0  0 0.625 0  0.04166666666666666 0.625 0  0.08333333333333333 0.625 0  0.125 0.625 0  0.1666666666666667 0.625 0  0.2083333333333333 0.625 0  0.25 0.625 0  0.2916666666666667 0.625 0  0.3333333333333333 0.625 0  0.375 0.625 0  0.4166666666666667 0.625 0  0.4583333333333333 0.625 0  0.5 0.625 0  0.5416666666666666 0.625 0  0.5833333333333334 0.625 0  0.625 0.625 0  0.6666666666666666 0.625 0  0.7083333333333334 0.625 0  0.75 0.625 0  0.7916666666666666 0.625 0  0.8333333333333334 0.625 0  0.875 0.625 0  0.9166666666666666 0.625 0  0.9583333333333334 0.625 0  1 0.625 0  0 0.6875 0  0.04166666666666666 0.6875 0  0.08333333333333333 0.6875 0  0.125 0.6875 0  0.1666666666666667 0.6875 0  0.2083333333333333 0.6875 0  0.25 0.6875 0  0.2916666666666667 0.6875 0  0.3333333333333333 0.6875 0  0.375 0.6875 0  0.4166666666666667 0.6875 0  0.4583333333333333 0.6875 0  0.5 0.6875 0  0.5416666666666666 0.6875 0  0.5833333333333334 0.6875 0  0.625 0.6875 0  0.6666666666666666 0.6875 0  0.7083333333333334 0.6875 0  0.75 0.6875 0  0.7916666666666666 0.6875 0  0.8333333333333334 0.6875 0  0.875 0.6875 0  0.9166666666666666 0.6875 0  0.9583333333333334 0.6875 0  1 0.6875 0  0 0.75 0  0.04166666666666666 0.75 0  0.08333333333333333 0.75 0  0.125 0.75 0  0.1666666666666667 0.75 0  0.2083333333333333 0.75 0  0.25 0.75 0  0.2916666666666667 0.75 0  0.3333333333333333 0.75 0  0.375 0.75 0  0.4166666666666667 0.75 0  0.4583333333333333 0.75 0  0.5 0.75 0  0.5416666666666666 0.75 0  0.5833333333333334 0.75 0  0.625 0.75 0  0.6666666666666666 0.75 0  0.7083333333333334 0.75 0  0.75 0.75 0  0.7916666666666666 0.75 0  0.8333333333333334 0.75 0  0.875 0.75 0  0.9166666666666666 0.75 0  0.9583333333333334 0.75 0  1 0.75 0  0 0.8125 0  0.04166666666666666 0.8125 0  0.08333333333333333 0.8125 0  0.125 0.8125 0  0.1666666666666667 0.8125 0  0.2083333333333333 0.8125 0  0.25 0.8125 0  0.2916666666666667 0.8125 0  0.3333333333333333 0.8125 0  0.375 0.8125 0  0.4166666666666667 0.8125 0  0.4583333333333333 0.8125 0  0.5 0.8125 0  0.5416666666666666 0.8125 0  0.5833333333333334 0.8125 0  0.625 0.8125 0  0.6666666666666666 0.8125 0  0.7083333333333334 0.8125 0  0.75 0.8125 0  0.7916666666666666 0.8125 0  0.8333333333333334 0.8125 0  0.875 0.8125 0  0.9166666666666666 0.8125 0  0.9583333333333334 0.8125 0  1 0.8125 0  0 0.875 0  0.04166666666666666 0.875 0  0.08333333333333333 0.875 0  0.125 0.875 0  0.1666666666666667 0.875 0  0.2083333333333333 0.875 0  0.25 0.875 0  0.2916666666666667 0.875 0  0.3333333333333333 0.875 0  0.375 0.875 0  0.4166666666666667 0.875 0  0.4583333333333333 0.875 0  0.5 0.875 0  0.5416666666666666 0.875 0  0.5833333333333334 0.875 0  0.625 0.875 0  0.6666666666666666 0.875 0  0.7083333333333334 0.875 0  0.75 0.875 0  0.7916666666666666 0.875 0  0.8333333333333334 0.875 0  0.875 0.875 0  0.9166666666666666 0.875 0  0.9583333333333334 0.875 0  1 0.875 0  0 0.9375 0  0.04166666666666666 0.9375 0  0.08333333333333333 0.9375 0  0.125 0.9375 0  0.1666666666666667 0.9375 0  0.2083333333333333 0.9375 0  0.25 0.9375 0  0.2916666666666667 0.9375 0  0.3333333333333333 0.9375 0  0.375 0.9375 0  0.4166666666666667 0.9375 0  0.4583333333333333 0.9375 0  0.5 0.9375 0  0.5416666666666666 0.9375 0  0.5833333333333334 0.9375 0  0.625 0.9375 0  0.6666666666666666 0.9375 0  0.7083333333333334 0.9375 0  0.75 0.9375 0  0.7916666666666666 0.9375 0  0.8333333333333334 0.9375 0  0.875 0.9375 0  0.9166666666666666 0.9375 0  0.9583333333333334 0.9375 0  1 0.9375 0  0 1 0  0.04166666666666666 1 0  0.08333333333333333 1 0  0.125 1 0  0.1666666666666667 1 0  0.2083333333333333 1 0  0.25 1 0  0.2916666666666667 1 0  0.3333333333333333 1 0  0.375 1 0  0.4166666666666667 1 0  0.4583333333333333 1 0  0.5 1 0  0.5416666666666666 1 0  0.5833333333333334 1 0  0.625 1 0  0.6666666666666666 1 0  0.7083333333333334 1 0  0.75 1 0  0.7916666666666666 1 0  0.8333333333333334 1 0  0.875 1 0  0.9166666666666666 1 0  0.9583333333333334 1 0  1 1 0  0 0 0.0625  0.04166666666666666 0 0.0625  0.08333333333333333 0 0.0625  0.125 0 0.0625  0.1666666666666667 0 0.0625  0.2083333333333333 0 
[...]
<PointData  Vectors="f_8"> 
<DataArray  type="Float64"  Name="f_8"  NumberOfComponents="3" format="ascii">0.0000000000000000e+00 0.0000000000000000e+00 0.0000000000000000e+00  8.2395983303377787e-03 1.6018852399270471e-02 -4.2807347618503975e-03  1.3268405438376598e-02 3.1691724104983006e-02 -1.2669779375935828e-02  1.6143865545920403e-02 4.7730330023190805e-02 -2.2593373439451621e-02  1.7600031524244879e-02 6.4007635360046486e-02 -3.3112509082812311e-02  1.8121692251257340e-02 8.0334157502435957e-02 -4.3770432076109166e-02  1.8039585968592470e-02 9.6561733185675805e-02 -5.4310522567366779e-02  1.7589315266364404e-02 1.1258358883307469e-01 -6.4574710447341102e-02  1.6945581548952551e-02 1.2832369799972518e-01 -7.4457243245473301e-02  1.6242070749334644e-02 1.4372873932273406e-01 -8.3880660403936796e-02  1.5582952317006269e-02 1.5876333691933397e-01 -9.2782089027266201e-02  1.5049248338883573e-02 1.7340766418242443e-01 -1.0110469524542927e-01  1.4701808239730380e-02 1.8765657062886584e-01 -1.0879173804740214e-01  1.4581720663991516e-02 2.0151961130681986e-01 -1.1578182234624157e-01  1.4708375070790628e-02 2.1502149605422419e-01 -1.2200448209043860e-01  1.5074859499132832e-02 2.2820250686437216e-01 -1.2737545647982093e-01  1.5639829714448033e-02 2.4111833378062877e-01 -1.3179106850675909e-01  1.6314358114941495e-02 2.5383850064817071e-01 -1.3512097441887796e-01  1.6941693163915233e-02 2.6644201939858209e-01 -1.3719804382683004e-01  1.7268045999418898e-02 2.7900811133362485e-01 -1.3780254014009330e-01  1.6906071138466018e-02 2.9159903706342255e-01 -1.3663260698950572e-01  1.5307846649031065e-02 3.0423219797732159e-01 -1.3323559865616871e-01  1.1815831294589666e-02 3.1684171030645331e-01 -1.2680974987543761e-01  6.0442135555745201e-03 3.2925165040318588e-01 -1.1545829840363989e-01  0.0000000000000000e+00 3.4150635094610959e-01 -9.1506350946109677e-02  0.0000000000000000e+00 0.0000000000000000e+00 0.0000000000000000e+00  1.2417925436264204e-03 1.2808264432557583e-02 -4.0700348315562632e-03  2.2164847810514803e-03 2.7864685633585733e-02 -1.1362740013582628e-02  2.7627452185134552e-03 4.3759214505042741e-02 -1.9804219815781385e-02  2.9220821430778650e-03 5.9996076877638402e-02 -2.8729176833321917e-02  2.7895629541474939e-03 7.6309458035943564e-02 -3.7789168094795898e-02  2.4662752434610313e-03 9.2524384371984236e-02 -4.6765799011164087e-02  2.0445612232370867e-03 1.0851799509093547e-01 -5.5512764514701537e-02  1.6042893422294762e-03 1.2420252774011448e-01 -6.3926421930631083e-02  1.2123680837025233e-03 1.3951594111033150e-01 -7.1928089940922105e-02  9.2288886786632033e-04 1.5441661818577013e-01 -7.9452683012131722e-02  7.7704856875988740e-04 1.6888061833709286e-01 -8.6440942067568638e-02  8.0256729986816655e-04 1.8290055008084605e-01 -9.2833640989678126e-02  1.0124760961252039e-03 1.9648541152712864e-01 -9.8566732423416001e-02  1.4031739610306877e-03 2.0966088344348624e-01 -1.0356669085873264e-01  1.9516532795150559e-03 2.2246959008146802e-01 -1.0774541176751085e-01  2.6118372368834453e-03 2.3497074591054493e-01 -1.1099395861502510e-01  3.3101490408964014e-03 2.4723831990195322e-01 -1.1317417800258413e-01  3.9408886992454949e-03 2.5935624930800771e-01 -1.1410658870473736e-01  4.3630222413360200e-03 2.7140806738880718e-01 -1.1355159475276538e-01  4.4022993765461598e-03 2.8345587679286377e-01 -1.1117767738544104e-01  3.8685624214854428e-03 2.9549722300004527e-01 -1.0649966417547874e-01  2.6183056179504903e-03 3.0736506041288142e-01 -9.8728694062878070e-02  7.8837579409849617e-04 3.1841488109505844e-01 -8.6277319632722449e-02  0.0000000000000000e+00 3.2588135094610959e-01 -6.4443057077845978e-02  0.0000000000000000e+00 0.0000000000000000e+00 0.0000000000000000e+00  -1.2824081041858035e-03 1.2960518505047477e-02 -4.5259368609360034e-03  -2.5063965908302885e-03 2.7490476213796543e-02 -1.0558380770791494e-02  -3.5528646941944469e-03 4.2983066385313358e-02 -1.7484069343735600e-02  -4.4621758100417200e-03 5.8912041098287543e-02 -2.4828266063928506e-02  -5.2636944330432325e-03 7.4959994342850694e-02 -3.2298650750561542e-02  -5.9641497791160149e-03 9.0924956613734190e-02 -3.9706275271027061e-02  -6.5552919996340548e-03 1.0666902760503258e-01 -4.6920421573560259e-02  -7.0213800084810499e-03 1.2209464049654992e-01 -5.3844944048920824e-02  -7.3444441606653190e-03 1.3713287764764168e-01 -6.0404276850682316e-02  -7.5078402659463474e-03 1.5173735473469863e-01 -6.6534140413147563e-02  -7.4987345435234094e-03 1.6588101011730252e-01 -7.2174765529498836e-02  -7.3099500042678126e-03 1.7955450495216471e-01 -7.7265469184355728e-02  -6.9414240751046108e-03 1.9276544572446638e-01 -8.1739828261982297e-02  -6.4014033248616133e-03 2.0553781680417876e-01 -8.5520868713199499e-02  -5.7074143270800879e-03 2.1791100607043090e-01 -8.8515723824031431e-02  -4.8869949600744509e-03 2.2993763394793815e-01 -9.0609140896575610e-02  -3.9781843221328101e-03 2.4167899601603982e-01 -9.1655019535280213e-02  -3.0299631480969693e-03 2.5319617025343627e-01 -9.1464788850725301e-02  -2.1034167181760806e-03 2.6453346003040412e-01 -8.9790664589060196e-02  -1.2754801187922851e-03 2.7568819137258138e-01 -8.6299788515713183e-02  -6.4740406755550749e-04 2.8655465253316859e-01 -8.0527909115936033e-02  -3.4937226068101841e-04 2.9680935459155872e-01 -7.1769105320573567e-02  -4.4816985892536394e-04 3.0560700124919599e-01 -5.8695596836730465e-02  0.0000000000000000e+00 3.1025635094610959e-01 -3.7379763209582278e-02  0.0000000000000000e+00 0.0000000000000000e+00 0.0000000000000000e+00  -2.2453374210449559e-03 1.3919536809411387e-02 -4.4902144802607628e-03  -4.3024456783126086e-03 2.8584764812279905e-02 -9.5150637123798780e-03  -6.0830104112809084e-03 4.3849846633895399e-02 -1.5067151069632736e-02  -7.5734185389239638e-03 5.9447036784494506e-02 -2.0917046804790028e-02  -8.7964716383725113e-03 7.5136258716624590e-02 -2.6860626812806751e-02  -9.7783435907950085e-03 9.0735585468873003e-02 -3.2746160327260312e-02  -1.0538445852711726e-02 1.0611086099991048e-01 -3.8461685808452960e-02  -1.1088628495558066e-02 1.2116323869160280e-01 -4.3921326199245658e-02  -1.1435074431571263e-02 1.3582082642334828e-01 -4.9055137930027408e-02  -1.1580570029275114e-02 1.5003368735640857e-01 -5.3801659310404558e-02  -1.1526468322073677e-02 1.6377090442264108e-01 -5.8102085658701945e-02  -1.1274197534584572e-02 1.7701876078544099e-01 -6.1895317310576820e-02  -1.0826330300455440e-02 1.8977934522636955e-01 -6.5113346704019429e-02  -1.0187284950949924e-02 2.0206898358133737e-01 -6.7676551469963986e-02  -9.3637901682933934e-03 2.1391584817019743e-01 -6.9488475058539778e-02  -8.3653921086629234e-03 2.2535590631632130e-01 -7.0429622034312744e-02  -7.2056421270594723e-03 2.3642600506848380e-01 -7.0349672715796924e-02  -5.9053795199293449e-03 2.4715229301000119e-01 -6.9057303876867301e-02  -4.5009863910107405e-03 2.5753125158172652e-01 -6.6306331576180932e-02  -3.0626085450321072e-03 2.6749907249020016e-01 -6.1775348786674379e-02  -1.7278214652128984e-03 2.7688165191862774e-01 -5.5031334471365434e-02  -7.4147277011796025e-04 2.8530446102247004e-01 -4.5435720893949288e-02  -3.9010142620834050e-04 2.9197000302311105e-01 -3.1785029930307684e-02  0.0000000000000000e+00 2.9463135094610965e-01 -1.0316469341318552e-02  0.0000000000000000e+00 0.0000000000000000e+00 0.0000000000000000e+00  -2.3952398464002580e-03 1.5001770319033337e-02 -4.0237888314686382e-03  -4.5579215468215918e-03 3.0082637916163720e-02 -8.0556332892821828e-03  -6.4677651909296084e-03 4.5348603783998652e-02 -1.2345644599378291e-02  -8.0981972965496196e-03 6.0725842996411983e-02 -1.6797861127533172e-02  -9.4477058189771802e-03 7.6088885945587548e-02 -2.1287684877995618e-02  -1.0529176803156237e-02 9.1311859815792817e-02 -2.5706250996893807e-02  -1.1359093176502426e-02 1.0628587706514216e-01 -2.9964855859968113e-02  -1.1952173785632779e-02 1.2092232090258148e-01 -3.3990803094193771e-02  -1.2319570560241720e-02 1.3515196660361464e-01 -3.7721856120775193e-02  -1.2468744845063261e-02 1.4892339226778567e-01 -4.1101025636768790e-02  -1.2403969013074728e-02 1.6220150125391475e-01 -4.4071888183672095e-02  -1.2126963611338269e-02 1.7496613160110847e-01 -4.6574249005310188e-02  -1.1637502349688135e-02 1.8721047337544594e-01 -4.8539890657206743e-02  -1.0934028989512547e-02 1.9893890136530251e-01 -4.9888136250675237e-02  -1.0014541720028920e-02 2.1016370960354580e-01 -5.0520933612957751e-02  -8.8783209310843436e-03 2.2090005571272206e-01 -5.0317115923924523e-02  -7.5296493696067083e-03 2.3115816781590670e-01 -4.9125408957947210e-02  -5.9856938807133610e-03 2.4093153490535488e-01 -4.6755611277423947e-02  -4.2923341953659076e-03 2.5017941307475072e-01 -4.2967008094080210e-02  -2.5534582051046674e-03 2.5880147631378392e-01 -3.7451568517230152e-02  -9.7749682043548106e-04 2.6660087612353556e-01 -2.9802231064431906e-02  7.6960045131113712e-05 2.7322248891183470e-01 -1.9421846484808616e-02  1.9332744815418079e-04 2.7798932857589753e-01 -5.1543365614588350e-03  0.0000000000000000e+00 2.7900635094610965e-01 1.6746824526945148e-02  0.0000000000000000e+00 0.0000000000000000e+00 0.0000000000000000e+00  -2.0435999331004672e-03 1.5986695936658246e-02 -3.2351823056119616e-03  -3.8852686237975586e-03 3.1549537490099047e-02 -6.2240136040491011e-03  -5.5447875324577418e-03 4.6940402549713121e-02 -9.2913066344615710e-03  -6.9955348211120025e-03 6.2210728367994725e-02 -1.2408580144229867e-02  -8.2211315813562717e-03 7.7326604044496330e-02 -1.5503207144600007e-02  -9.2179985686774279e-03 9.2220719345389363e-02 -1.8502213143619765e-02  -9.9898829013171115e-03 1.0681757552441952e-01 -2.1340058281911541e-02  -1.0542879001333690e-02 1.2104551256707778e-01 -2.3958741020410419e-02  -1.0882364405498191e-02 1.3484210762575077e-01 -2.6305417902239406e-02  -1.1011476640315663e-02 1.4815635557220541e-01 -2.8329165015221796e-02  -1.0930534143381772e-02 1.6094921994798558e-01 -2.9977464737382071e-02  -1.0636993268484544e-02 1.7319318900646982e-01 -3.1192567311062267e-02  -1.0125783468824999e-02 1.8487099881548566e-01 -3.1907686742176110e-02  -9.3901128426806101e-03 1.9597342533229345e-01 -3.2042900581472647e-02  -8.4231236307211032e-03 2.0649586208817869e-01 -3.1500565788448440e-02  -7.2211851482492997e-03 2.1643323273683171e-01 -3.0160007490159107e-02  -5.7902639017454903e-03 2.2577262762106534e-01 -2.7871170093558557e-02  -4.1578476773285293e-03 2.3448292889836270e-01 -2.4446811817412640e-02  -2.3943050175160869e-03 2.4250066098854658e-01 -1.9652480297265913e-02  -6.4839165357700405e-04 2.4971133363476070e-01 -1.3191844480580925e-02  8.0283424628715288e-04 2.5592455826764920e-01 -4.6768088376368186e-03  1.5176815815061929e-03 2.6083184234071149e-01 6.4658160366100727e-03  1.0229526084230853e-03 2.6387163767273752e-01 2.1377359323267259e-02  0.0000000000000000e+00 2.6338135094610965e-01 4.3810118395208847e-02  0.0000000000000000e+00 0.0000000000000000e+00 0.0000000000000000e+00  -1.3572763572803003e-03 1.6799710364995779e-02 -2.2058279686007006e-03  -2.6077518473928735e-03 3.2807551453701296e-02 -4.0932000024768269e-03  -3.7752295253383611e-03 4.8363741152623325e-02 -5.9423371335379843e-03  -4.8301866282801911e-03 6.3599425560403142e-02 -7.7541442231175385e-03  -5.7464019477972902e-03 7.8543952601919653e-02 -9.4885846001954866e-03  -6.5071248353558309e-03 9.3175233297008150e-02 -1.1099213364723087e-02  -7.1027501529740073e-03 1.0744685472064638e-01 -1.2540359856811035e-02  -7.5274564008054028e-03 1.2130363129085893e-01 -1.3768353015873891e-02  -7.7765483574083714e-03 1.3469052420902847e-01 -1.4740574119561051e-02  -7.8447639669359196e-03 1.4755749639611551e-01 -1.5413442635957578e-02  -7.7253795513954806e-03 1.5986179188644054e-01 -1.5739808215444864e-02  -7.4099330243324905e-03 1.7156849253380699e-01 -1.5665946807120752e-02  -6.8885362294867124e-03 1.8264979283742658e-01 -1.5128199660363769e-02  -6.1509764977233840e-03 1.9308315003810780e-01 -1.4049197399585536e-02  -5.1891135854194286e-03 2.0284825489324046e-01 -1.2333549860434606e-02  -4.0015137481322679e-03 2.1192260465932489e-01 -9.8628370784975324e-03  -2.6019151715755691e-03 2.2027535238189663e-01 -6.4896932313791541e-03  -1.0340639913324874e-03 2.2785909353575284e-01 -2.0306984401473435e-03  6.0348372248179307e-04 2.3459938503564437e-01 3.7425505842732434e-03  2.1191822179175666e-03 2.4038194669816620e-01 1.1116692934618547e-02  3.1804967514379549e-03 2.4503627768179098e-01 2.0465804568618701e-02  3.2927678037589854e-03 2.4830382327520401e-01 3.2348357732269163e-02  1.9735886028889598e-03 2.4971318687730945e-01 4.7902441000795083e-02  0.0000000000000000e+00 2.4775635094610965e-01 7.0873412263472574e-02  0.0000000000000000e+00 0.0000000000000000e+00 0.0000000000000000e+00  -4.4040883050383583e-04 1.7415493928017455e-02 -9.9476126322780201e-04  -9.2174185628091836e-04 3.3781075360806143e-02 -1.7287032533863235e-03  -1.4408841939041450e-03 4.9491490122057731e-02 -2.3505565256038610e-03  -1.9582467815816747e-03 6.4727899543160106e-02 -2.8658624534146360e-03  -2.4382097141181377e-03 7.9559359878529232e-02 -3.2550061691960382e-03  -2.8528749536424168e-03 9.3992579214930705e-02 -3.4913111371749107e-03  -3.1804042593904709e-03 1.0800019873786655e-01 -3.5457072101964587e-03  -3.4028464689894590e-03 1.2153809849895601e-01 -3.3878208660357324e-03  -3.5044143926358400e-03 1.3455606122909322e-01 -2.9854850784239283e-03  -3.4703392688689946e-03 1.4700403455318822e-01 -2.3033422064161297e-03  -3.2862433975532814e-03 1.5883539153806761e-01 -1.3008363109826887e-03  -2.9379999142570101e-03 1.7000812594710105e-01 7.0281722003098204e-05  -2.4121842919504251e-03 1.8048458691854863e-01 1.8689218807940550e-03  -1.6974361446477483e-03 1.9023009594274004e-01 4.1681538268210335e-03  -7.8735790230175255e-04 1.9921057529900621e-01 7.0593364091725945e-03  3.1397519432797225e-04 2.0738914525881247e-01 1.0656987811659817e-02  1.5821802528245533e-03 2.1472153974989400e-01 1.5104494104554273e-02  2.9558768084893688e-03 2.2115020667842400e-01 2.0580778361478543e-02  4.3099483405456647e-03 2.2659711961940796e-01 2.7308394985580520e-02  5.4167637044120224e-03 2.3095538982599073e-01 3.5565635113013958e-02  5.9026259763061565e-03 2.3407801474692067e-01 4.5715381340274856e-02  5.2436524046321625e-03 2.3575018165812486e-01 5.8305834437597209e-02  2.9784902967777676e-03 2.3556631088831326e-01 7.4474802633959461e-02  0.0000000000000000e+00 2.3213135094610965e-01 9.7936706131736273e-02  0.0000000000000000e+00 0.0000000000000000e+00 0.0000000000000000e+00  6.3353475441997272e-04 1.7823166219095611e-02 3.5097283197999077e-04  1.0374780180329624e-03 3.4433076299081052e-02 8.1172192209989845e-04  1.2644298433924710e-03 5.0257537396681470e-02 1.4305772546543752e-03  1.3711278638185733e-03 6.5506195231430642e-02 2.2146111338421821e-03  1.4046086619963652e-03 8.0267771583134834e-02 3.1704746047969772e-03  1.4042984296485251e-03 9.4561388674723718e-02 4.3089861115564307e-03  1.4043634277439334e-03 1.0836695739655557e-01 5.6445782785619252e-03  1.4350774698806941e-03 1.2164394716427317e-01 7.1950465617449831e-03  1.5235083019132913e-03 1.3434285728052417e-01 8.9820343237285317e-03  1.6938361100508022e-03 1.4641184372894156e-01 1.1032110024572715e-02  1.9674456327946591e-03 1.5780010032391373e-01 1.3378335346031306e-02  2.3627621992111290e-03 1.6845909002755019e-01 1.6062311423603953e-02  2.8946309870461298e-03 1.7834237136769726e-01 1.9136761940305849e-02  3.5728300787492345e-03 1.8740450288023378e-01 2.2668763958889317e-02  4.3990065537885025e-03 1.9559930344440879e-01 2.6743760919675549e-02  5.3608629600006156e-03 2.0287757128843573e-01 3.1470462346398852e-02  6.4217519313798455e-03 2.0918420976925953e-01 3.6986624735780210e-02  7.5030690620503304e-03 2.1445462974437365e-01 4.3465582941656256e-02  8.4566015223569140e-03 2.1861041521748265e-01 5.1123730140802570e-02  9.0262543161676641e-03 2.2155412916360401e-01 6.0231573740411187e-02  8.8100399806022908e-03 2.2316082550075858e-01 7.1142306970162439e-02  7.2733012663219136e-03 2.2325093317806619e-01 8.4396181406959869e-02  3.9967807772969223e-03 2.2146635862739855e-01 1.0113069787938214e-01  0.0000000000000000e+00 2.1650635094610965e-01 1.2499999999999997e-01  0.0000000000000000e+00 0.0000000000000000e+00 0.0000000000000000e+00  1.8058182532900713e-03 1.8012251194247281e-02 1.7873309879947894e-03  3.1626570683251590e-03 3.4738026765622813e-02 3.4710912626637995e-03  4.1859307712480949e-03 5.0622581440834577e-02 5.3442757915326787e-03  4.9554469590585752e-03 6.5884247550304115e-02 7.4378947221627363e-03  5.5335796259709550e-03 8.0611421809514486e-02 9.7493077911041219e-03  5.9743799505623087e-03 9.4818939012723341e-02 1.2274826142675241e-02  6.3267112682898778e-03 1.0848192963009878e-01 1.5014734394981744e-02  6.6347182765326071e-03 1.2155587637516710e-01 1.7974370345481119e-02  6.9374101866938806e-03 1.3398799875082237e-01 2.1164771315408292e-02  7.2681318896344596e-03 1.4572319754554380e-01 2.4603469199644484e-02  7.6541343133967980e-03 1.5670663553084127e-01 2.8315592172142533e-02  8.1161486678914836e-03 1.6688428952285975e-01 3.2335392376826304e-02  8.6676781338551473e-03 1.7620233510866956e-01 3.6708344785533947e-02  9.3135407230792375e-03 1.8460593277396689e-01 4.1494001789161843e-02  1.0046937457234190e-02 1.9203780975947296e-01 4.6769819017971809e-02  1.0843883173082132e-02 1.9843691327451035e-01 5.2636144035462407e-02  1.1653134008542086e-02 2.0373726595835839e-01 5.9222390250255406e-02  1.2378852596673052e-02 2.0786688762127678e-01 6.6694038362267352e-02  1.2853038970353671e-02 2.1074628217603839e-01 7.5259997366168202e-02  1.2798439883204435e-02 2.1228584449225824e-01 8.5182817282713291e-02  1.1796442907479658e-02 2.1237876447293905e-01 9.6806973232964083e-02  9.3173102854572643e-03 2.1087260481509093e-01 1.1066664526603068e-01  5.0007409978804736e-03 2.0744413789674096e-01 1.2789839971479358e-01  0.0000000000000000e+00 2.0088135094610965e-01 1.5206329386826370e-01  0.0000000000000000e+00 0.0000000000000000e+00 0.0000000000000000e+00  3.0221312020609508e-03 1.7966296387169255e-02 3.2655907829374450e-03  5.3525746388008331e-03 3.4671037671300461e-02 6.1852426022741096e-03  7.1738074825408778e-03 5.0560661957028089e-02 9.3250596532191248e-03  8.5944623234250235e-03 6.5837270685882493e-02 1.2744430545273759e-02  9.6991427478365193e-03 8.0565215472222632e-02 1.6430914789661927e-02  1.0563110408358530e-02 9.4737209009138512e-02 2.0365077643515892e-02  1.1255072440608265e-02 1.0831221557551418e-01 2.4532181785533801e-02  1.1836298094120942e-02 1.2123559164949954e-01 2.8924771959042282e-02  1.2359141303344669e-02 1.3344883099906055e-01 3.3543353322806682e-02  1.2865938251182036e-02 1.4489349257845788e-01 3.8396700251553471e-02  1.3388370142164905e-02 1.5551198850594747e-01 4.3502287780518643e-02  1.3947030438470214e-02 1.6524674691416411e-01 4.8887102785930149e-02  1.4550790722084012e-02 1.7403860831524093e-01 5.4589043370128917e-02  1.5195455525251270e-02 1.8182498594057089e-01 6.0659136703226604e-02  1.5861030828368709e-02 1.8853820730741200e-01 6.7164865381499447e-02  1.6506611680736222e-02 1.9410448173042322e-01 7.4194950873860591e-02  1.7061322659593488e-02 1.9844401378106943e-01 8.1865901287718562e-02  1.7408881753401915e-02 2.0147266220163046e-01 9.0330284372392392e-02  1.7362678442502357e-02 2.0310458930170763e-01 9.9785929151214758e-02  1.6630905380433512e-02 2.0325274892107534e-01 1.1048619178780986e-01  1.4790235496463222e-02 2.0182273383242588e-01 1.2276792184616771e-01  1.1331788333156748e-02 1.9868198441953761e-01 1.3716189078131619e-01  5.9705459836476389e-03 1.9353390271291623e-01 1.5480384809496009e-01  0.0000000000000000e+00 1.8525635094610965e-01 1.7912658773652737e-01  0.0000000000000000e+00 0.0000000000000000e+00 0.0000000000000000e+00  4.2226202815275043e-03 1.7659400012486230e-02 4.7246235729481931e-03  7.4897396849560056e-03 3.4205783869262374e-02 8.8746425482445126e-03  1.0048196410689757e-02 5.0058010913377575e-02 1.3292541271936471e-02  1.2044506135284058e-02 6.5363063289940432e-02 1.8060361365867843e-02  1.359